ITEM: TIMESTEP
75000
ITEM: NUMBER OF CELLS
800
ITEM: BOX BOUNDS oo ss pp
0 0.00075
0 5.4e-06
-2.7e-07 2.7e-07
ITEM: CELLS id f_8[1] f_8[2] f_8[3] f_8[4] f_8[5] f_8[6] f_8[7] f_8[8] f_8[9] f_8[10] f_8[11] f_8[12] f_8[13] f_8[14] f_8[15] f_8[16] f_8[17] f_8[18] f_8[19] f_8[20] f_8[21] f_8[22] f_8[23] f_8[24] f_8[25] f_8[26] f_8[27] f_8[28] f_8[29] f_8[30] f_8[31] f_8[32] f_8[33] f_8[34] f_8[35] f_8[36] f_8[37] f_8[38] f_8[39] f_8[40] f_8[41] f_8[42] f_8[43] f_8[44] f_8[45] f_8[46] f_8[47] f_8[48] f_8[49] f_8[50] f_8[51] f_8[52] f_8[53] f_8[54] f_8[55] f_8[56] f_8[57] f_8[58] f_8[59] f_8[60] f_8[61] f_8[62] f_8[63] f_8[64] f_8[65] f_8[66] f_8[67] f_8[68] f_8[69] f_8[70] f_8[71] f_8[72] f_8[73] f_8[74] f_MFP[1] f_MFP[2] 
1 3002.44 25142.8 0 264.706 6.06537e+23 0.0161485 6.48792 1.06513 -0.117001 0 9.375e-06 0 5.4e-07 5.0625e-12 0.928896 0.000190098 0.000109102 0.0251588 5.37955e-05 0.00380709 0 0 0 4.53333e-06 0.00132373 0.0225454 0.00287564 3.02222e-07 0.000104267 0.00570262 0.000171662 0.00338942 5.22844e-05 0.00561558 0.929441 0.00034458 0.000204615 0.0235919 8.39809e-05 0.00927395 0 0 0 3.68102e-06 8.32173e-05 0.00283466 0.00502429 2.26401e-07 0.000260431 0.00926094 0.000289563 0.0059305 4.57413e-05 0.0133264 3001.52 3023.73 3116.17 2949.7 3033.61 2959.85 0 0 0 1312.42 2552.92 3002.88 2915.22 0 2739.42 2961.73 2899.19 2992.72 2817.88 2962.87 3.4437e-06 0.694644 
82 3002.22 25025 0 263.485 6.03738e+23 0.0160814 6.83465 0.980647 0.854013 9.375e-06 1.875e-05 5.4e-07 1.08e-06 5.0625e-12 0.851066 0.000436914 0.000255651 0.0512995 0.000110519 0.00823517 0 0 0 6.67971e-06 0.00248121 0.0477936 0.00607125 1.21449e-06 0.000195533 0.0122087 0.000410802 0.00706925 0.000129951 0.0122278 0.851172 0.000791603 0.000479236 0.0480823 0.000172453 0.0200513 0 0 0 5.42135e-06 0.000155911 0.00600636 0.0106027 9.09383e-07 0.000488165 0.0198175 0.000692628 0.0123634 0.000113635 0.0290044 3002.66 3000.08 2829.46 2984.24 3120.9 2978.94 0 0 0 3168.25 2739.21 2993.33 2969.06 4299.1 2907.33 2997.87 2978.09 2976.8 3033.79 2993.04 3.45879e-06 0.697689 
2 3001.4 25031 0 263.62 6.04049e+23 0.016091 5.61301 -0.500855 0.541841 9.375e-06 1.875e-05 0 5.4e-07 5.0625e-12 0.851273 0.000433047 0.000250057 0.0510592 9.80198e-05 0.00815233 0 0 0 6.06933e-06 0.00244625 0.0477745 0.00620832 9.104e-07 0.000198467 0.0121933 0.000413929 0.00712965 0.000129884 0.012233 0.851309 0.000784533 0.000468711 0.0478531 0.000152937 0.019848 0 0 0 4.92556e-06 0.000153701 0.00600346 0.0108412 6.8163e-07 0.000495449 0.0197908 0.000697842 0.012468 0.000113568 0.0290145 3002.06 2958.47 3016.58 2984.34 3073.56 2978.09 0 0 0 2664.79 2701.38 2995.34 2991.41 3907.57 2788.32 2993.3 3085.45 2990.02 2934.08 2993.46 3.45848e-06 0.697626 
83 2999.58 24862.5 0 262.004 6.00345e+23 0.0160016 7.06964 -0.48304 -0.735245 1.875e-05 2.8125e-05 5.4e-07 1.08e-06 5.0625e-12 0.778915 0.000764874 0.000339842 0.073168 0.000147784 0.0123589 0 0 0 1.64883e-05 0.00355384 0.0723281 0.00930306 2.13737e-06 0.000316636 0.0187753 0.000625945 0.0105205 0.000212211 0.0186519 0.778497 0.00138489 0.000636639 0.0685341 0.000230449 0.0300721 0 0 0 1.33733e-05 0.000223164 0.00908367 0.016236 1.59936e-06 0.000789988 0.0304564 0.00105467 0.0183871 0.000185445 0.0442133 2998.73 2938.2 2978.82 2999.94 3016.44 2964.13 0 0 0 2358.53 2818.49 3000.1 2971.31 2008.53 3046.27 2998.63 2957.7 3009.52 3079.54 3009.12 3.47763e-06 0.701488 
3 2998.5 24885 0 262.336 6.01105e+23 0.0160313 6.32764 -0.478559 -0.423812 1.875e-05 2.8125e-05 0 5.4e-07 5.0625e-12 0.778974 0.000759028 0.000346122 0.0732674 0.000147597 0.0123643 0 0 6.09906e-07 1.18932e-05 0.00353257 0.0719347 0.00926782 2.74458e-06 0.000310137 0.0188589 0.00065016 0.01063 0.000213772 0.0187284 0.778099 0.0013735 0.000648021 0.0685868 0.000230022 0.0300676 0 0 2.96635e-06 9.64063e-06 0.000221698 0.00902896 0.016165 2.05251e-06 0.000773318 0.0305741 0.00109483 0.0185677 0.0001867 0.0443684 2999.31 3011.08 2990.16 2985.76 3275.33 2996.49 0 0 3111.95 3516.9 2803.98 2999.42 2973.48 1991.47 3029.5 2992.87 3061.93 3007.78 2896.08 2990.4 3.47322e-06 0.700599 
721 3002.81 25146.2 0 264.709 6.06544e+23 0.0161499 4.85926 -0.517942 -1.24917 0 9.375e-06 4.86e-06 5.4e-06 5.0625e-12 0.928427 0.0001771 0.000140531 0.0253177 5.10749e-05 0.00379344 0 0 0 3.92884e-06 0.0013618 0.0226105 0.00296597 3.02218e-07 9.91276e-05 0.00576572 0.000187375 0.00334495 5.83281e-05 0.0056947 0.928901 0.000320994 0.000263538 0.0237391 7.97275e-05 0.00923999 0 0 0 3.18993e-06 8.56035e-05 0.00284261 0.00518171 2.26381e-07 0.000247576 0.00936267 0.000316044 0.00585224 5.10247e-05 0.0135131 3001.92 3003.57 2888.1 2953.5 2989.36 2949.82 0 0 0 1671.83 2549.76 3008.51 2917.8 0 3193.01 2981.02 3003.65 2939.16 2887.86 2949.66 3.44153e-06 0.694207 
641 3004.47 25160 0 264.708 6.06541e+23 0.01615 6.17975 -0.913784 0.286051 0 9.375e-06 4.32e-06 4.86e-06 5.0625e-12 0.928527 0.000174683 0.000131768 0.025355 4.5333e-05 0.00378017 0 0 0 5.13774e-06 0.00134216 0.0225909 0.00291854 3.0222e-07 9.45948e-05 0.00569201 0.000177403 0.00333167 5.47018e-05 0.00577844 0.92899 0.00031661 0.000247101 0.0237738 7.07636e-05 0.00920755 0 0 0 4.17142e-06 8.43682e-05 0.00284013 0.00509878 2.2638e-07 0.000236252 0.00924287 0.00029922 0.00582894 4.78519e-05 0.0137116 3003.25 2891.22 2822.61 2946.21 2948.05 2909.14 0 0 0 1948.97 2599.67 2996.78 2891.07 0 2991.84 2928.55 3006.31 2996.85 2707.71 2920.82 3.44296e-06 0.694495 
722 3001.62 25042 0 263.716 6.04269e+23 0.0160941 5.91196 -0.557249 1.06886 9.375e-06 1.875e-05 4.86e-06 5.4e-06 5.0625e-12 0.850829 0.000437136 0.000242078 0.0513294 0.000102838 0.00803348 0 0 0 6.67384e-06 0.00250694 0.0478529 0.00622639 9.10069e-07 0.000189598 0.0122216 0.000408317 0.00718226 0.000133173 0.0122971 0.851012 0.000792078 0.000453835 0.0481146 0.000160482 0.019562 0 0 0 5.41708e-06 0.000157542 0.00601436 0.0108746 6.815e-07 0.000473389 0.0198402 0.000688502 0.0125622 0.000116464 0.0291716 3002.44 2980.68 2966.52 2985.09 2949.48 2989.9 0 0 0 2265.39 2715.16 2997.25 2970.4 945.977 3023.25 2993.72 2975.3 2993.91 2945.86 2978.67 3.45606e-06 0.697137 
561 2999.74 25102.5 0 264.519 6.06108e+23 0.0161368 6.12919 -0.378185 -1.67951 0 9.375e-06 3.78e-06 4.32e-06 5.0625e-12 0.928903 0.000162408 0.000128535 0.025081 5.4136e-05 0.0037378 0 0 0 3.02436e-06 0.00138909 0.0225339 0.00287133 0 0.000107365 0.00573842 0.000183579 0.00334101 4.65751e-05 0.00571876 0.929461 0.000294392 0.000241064 0.0235192 8.45136e-05 0.00910529 0 0 0 2.45578e-06 8.73271e-05 0.00283324 0.00501682 0 0.000268173 0.00931918 0.000309668 0.00584587 4.0747e-05 0.0135714 2998.6 3040.09 2927.23 2934.46 2831.62 2953.9 0 0 0 1985.24 2496.79 2975.24 2919.9 0 2959.47 2900.93 2662.74 2931.62 3206.59 2898.68 3.44648e-06 0.695205 
642 2999.59 25034.3 0 263.813 6.04491e+23 0.0160978 7.36137 0.242393 1.51001 9.375e-06 1.875e-05 4.32e-06 4.86e-06 5.0625e-12 0.851141 0.000428181 0.000245931 0.0511061 0.000112807 0.00808663 0 0 0 5.76165e-06 0.00249783 0.0479199 0.00624502 3.03245e-07 0.000204387 0.012188 0.000408167 0.00705196 0.000130092 0.0122277 0.851439 0.000775957 0.000461121 0.0479118 0.000176063 0.0196941 0 0 0 4.6773e-06 0.00015699 0.00602359 0.0109087 2.27114e-07 0.000510384 0.0197884 0.000688342 0.012336 0.000113785 0.0290108 3000.91 3017.32 2883.67 2968.66 3097.16 2972.16 0 0 0 2629.78 2736.64 2990.64 2973.49 0 2894.53 2993.54 2997.19 2976.43 3045.31 2982.26 3.45501e-06 0.696926 
723 2999.69 24891 0 262.295 6.01011e+23 0.0160199 5.22651 0.264426 -1.84912 1.875e-05 2.8125e-05 4.86e-06 5.4e-06 5.0625e-12 0.779355 0.000762806 0.0003294 0.0731675 0.00016348 0.0123177 0 0 3.05e-07 1.098e-05 0.00346236 0.0721695 0.00917014 1.83e-06 0.000331535 0.0186895 0.000650566 0.0105588 0.00023546 0.0186227 0.778908 0.00138109 0.000617055 0.0685309 0.000254915 0.0299708 0 0 1.48422e-06 8.90533e-06 0.000217411 0.00906341 0.0160034 1.36931e-06 0.000827129 0.0303161 0.00109611 0.0184534 0.000205755 0.0441424 3000.59 2895.03 3025.36 2990.95 3005.39 2999.72 0 0 0 2583.86 2776.14 2997.44 2981.09 2494.16 2999.36 2988.48 3066.95 2995.51 3157.85 3003.78 3.47633e-06 0.701227 
481 3002.99 25149.4 0 264.727 6.06584e+23 0.0161506 7.32994 0.763503 -0.937488 0 9.375e-06 3.24e-06 3.78e-06 5.0625e-12 0.928897 0.000157445 0.000130852 0.0252329 5.07693e-05 0.0037672 0 0 0 6.64836e-06 0.00133541 0.0224965 0.00286907 3.02198e-07 0.000103956 0.0057324 0.000174368 0.00325256 4.68407e-05 0.00574569 0.929394 0.000285378 0.000245392 0.0236602 7.92525e-05 0.00917631 0 0 0 5.39813e-06 8.39473e-05 0.00282837 0.00501255 2.26372e-07 0.000259642 0.0093088 0.000294113 0.00569074 4.09767e-05 0.0136344 3002.18 2875.92 2869.67 2923.84 2889.49 2914.8 0 0 0 2612.34 2553.41 2978.83 2929.03 0 2970.2 2887.75 2697.24 2904.73 3120.2 2909.79 3.44462e-06 0.69483 
562 3000.83 25036.9 0 263.732 6.04305e+23 0.0160948 6.8401 -0.702014 -1.5864 9.375e-06 1.875e-05 3.78e-06 4.32e-06 5.0625e-12 0.850901 0.000424976 0.00025541 0.0513663 0.000118302 0.00803724 0 0 0 6.67343e-06 0.00243429 0.0478828 0.00619567 2.12336e-06 0.000178969 0.0121772 0.000416483 0.00720033 0.000124368 0.0122782 0.851098 0.000770058 0.000478837 0.0481501 0.000184617 0.0195715 0 0 0 5.41684e-06 0.000152979 0.00601821 0.0108212 1.5901e-06 0.00044686 0.0197685 0.000702282 0.012594 0.000108766 0.0291271 3001.19 2924.05 3042.75 2979.17 2960.31 2973.96 0 0 0 2260.37 2731.65 2994.86 3001.65 4198.83 3082.25 2970.24 3065.77 2971.12 3106.72 2974.67 3.45588e-06 0.697101 
643 3001.31 24878.1 0 262.018 6.00377e+23 0.0160072 6.05323 -0.0304116 -0.946678 1.875e-05 2.8125e-05 4.32e-06 4.86e-06 5.0625e-12 0.779558 0.000781626 0.000327916 0.073129 0.000159989 0.0122688 0 0 0 1.22129e-05 0.00351304 0.0718803 0.00921097 4.27452e-06 0.000339824 0.0187291 0.000651253 0.0106002 0.000203345 0.0186305 0.778907 0.0014148 0.000614114 0.0684771 0.000249406 0.0298439 0 0 0 9.90267e-06 0.000220536 0.00902473 0.0160704 3.19759e-06 0.000847586 0.0303724 0.00109699 0.0185209 0.000177644 0.0441492 3002.55 3050.78 2913.74 2986.37 2999.28 2995.29 0 0 0 2610.41 2820.37 2993.49 2999.71 2541.23 2953.26 2987.44 3072.01 3028.49 3043.41 2981.66 3.476e-06 0.701161 
401 3002.38 25132.4 0 264.601 6.06296e+23 0.0161394 7.44449 0.712693 0.403055 0 9.375e-06 2.7e-06 3.24e-06 5.0625e-12 0.928913 0.000177475 0.00012396 0.0251267 5.44215e-05 0.00372425 0 0 0 3.02342e-06 0.00134844 0.0226176 0.00290581 3.02342e-07 9.67494e-05 0.00566679 0.000178382 0.00332213 5.9259e-05 0.00568191 0.929613 0.000321752 0.000232519 0.0235657 8.49724e-05 0.00907366 0 0 0 2.4554e-06 8.4785e-05 0.00284421 0.00507784 2.26529e-07 0.000241695 0.00920428 0.000300948 0.00581374 5.18517e-05 0.013486 3000.58 3090.28 2908.43 2917.38 3003 2925.71 0 0 0 2238.89 2538.4 3001.2 2901.41 0 2690.61 2924.13 2908.77 2930.97 2789.71 2901.59 3.44457e-06 0.69482 
482 2998.35 25015.5 0 263.725 6.04287e+23 0.0160957 8.03319 -1.36744 1.17231 9.375e-06 1.875e-05 3.24e-06 3.78e-06 5.0625e-12 0.850795 0.000436516 0.00023206 0.0515059 0.000107081 0.00818612 0 0 0 6.67363e-06 0.00248957 0.0478138 0.00622164 1.21339e-06 0.000202332 0.0121663 0.000411945 0.00705949 0.000120125 0.0122446 0.850916 0.000790897 0.000435022 0.0482766 0.000167092 0.0199323 0 0 0 5.41652e-06 0.000156439 0.00600901 0.0108656 9.08572e-07 0.000505149 0.0197491 0.000694568 0.0123466 0.000105046 0.0290448 2999.19 2991.63 3100.73 2975.03 3073.61 2983.67 0 0 0 2427.64 2648.03 2990.88 2950.17 783.408 3129.62 2983.95 2956.31 2965.65 2975.12 2965.68 3.45516e-06 0.696955 
563 2998.81 24852 0 261.96 6.00245e+23 0.0159979 6.9311 -0.0163084 -0.48117 1.875e-05 2.8125e-05 3.78e-06 4.32e-06 5.0625e-12 0.778872 0.000764391 0.000320354 0.0734508 0.000152084 0.0123888 0 0 3.0539e-07 1.16048e-05 0.00361276 0.0721511 0.00930401 2.13773e-06 0.000307528 0.0187439 0.000653229 0.0105225 0.000211635 0.0185311 0.778506 0.00138411 0.000600171 0.0688035 0.00023717 0.0301467 0 0 1.48627e-06 9.41305e-06 0.000226879 0.00906205 0.0162387 1.59973e-06 0.000767313 0.0304076 0.00110072 0.0183919 0.000184955 0.0439297 2999.84 3039.1 3128.17 2986.59 3085.93 2998.36 0 0 0 2919.47 2776.5 2990.11 2959.33 4207.47 3058.1 2985.4 2974.04 2989.79 2980.36 3011.82 3.47747e-06 0.701457 
321 3000.63 25126 0 264.688 6.06496e+23 0.0161476 9.02016 0.39347 -0.947946 0 9.375e-06 2.16e-06 2.7e-06 5.0625e-12 0.928535 0.000175905 0.00012936 0.0253228 5.62171e-05 0.00378528 0 0 0 3.62691e-06 0.00132684 0.0226425 0.00286375 6.04485e-07 0.000100042 0.00577222 0.000182252 0.00332043 5.44036e-05 0.0057284 0.929066 0.000318848 0.000242603 0.0237453 8.77598e-05 0.00922068 0 0 0 2.94497e-06 8.34116e-05 0.00284682 0.00500343 4.52826e-07 0.000249875 0.00937381 0.000307422 0.0058097 4.75945e-05 0.0135939 2999.24 3160.98 2905.94 2935.12 2695.27 2889.66 0 0 0 1478.37 2472.55 2976.95 2953.23 1339.85 2944.33 2908.81 2877.1 2902.51 2632.95 2869.13 3.44255e-06 0.694413 
402 2999.81 25033.4 0 263.785 6.04427e+23 0.0160994 8.23165 0.534203 -0.245514 9.375e-06 1.875e-05 2.7e-06 3.24e-06 5.0625e-12 0.850941 0.000427014 0.000258998 0.0510958 0.000122827 0.00817058 0 0 0 7.58192e-06 0.0024802 0.0479381 0.00617138 9.0983e-07 0.000188638 0.0122145 0.000424284 0.00718038 0.000134958 0.012243 0.851066 0.000773684 0.000485523 0.0478924 0.000191663 0.0198945 0 0 0 6.15374e-06 0.000155851 0.00602465 0.0107778 6.81275e-07 0.000470962 0.0198273 0.000715376 0.0125581 0.000118017 0.0290411 3000.31 2949.41 2910.67 2981.2 2834.92 2950.13 0 0 0 3194.84 2699.12 2988.36 2959.91 2673.24 2923.23 2978.44 3014.01 2967.56 3132.35 2990.32 3.45368e-06 0.696657 
483 3001.02 24880.9 0 262.073 6.00502e+23 0.0160049 7.51924 0.38927 0.281404 1.875e-05 2.8125e-05 3.24e-06 3.78e-06 5.0625e-12 0.778684 0.000787873 0.000325711 0.0735906 0.000155377 0.0123679 0 0 0 1.37366e-05 0.00360602 0.0721726 0.0093342 2.44207e-06 0.000320522 0.0187539 0.000653559 0.0104777 0.000207271 0.0185469 0.77831 0.00142661 0.000610201 0.0689337 0.000242302 0.0300956 0 0 0 1.11421e-05 0.000226453 0.00906466 0.0162912 1.82746e-06 0.000799727 0.0304234 0.00110126 0.0183134 0.000181139 0.0439669 3001.98 2927.98 3075.79 2986.3 2900.83 2990.23 0 0 0 2178.18 2747.85 3000.66 2976.1 3312.95 3052.88 2976.89 3060.08 2992.11 2981.76 3007.02 3.47853e-06 0.70167 
241 3001.83 25121.1 0 264.531 6.06135e+23 0.0161379 6.6744 0.752475 -1.73245 0 9.375e-06 1.62e-06 2.16e-06 5.0625e-12 0.928676 0.000182663 0.0001249 0.0253194 6.04844e-05 0.00377423 0 0 0 6.04844e-06 0.00133792 0.022561 0.00292866 9.07266e-07 0.000106755 0.005694 0.000166332 0.00330971 5.77626e-05 0.0056937 0.929214 0.000331101 0.000234242 0.0237423 9.44224e-05 0.00919383 0 0 0 4.91124e-06 8.41083e-05 0.00283659 0.00511688 6.79649e-07 0.000266644 0.00924687 0.00028057 0.00579099 5.05335e-05 0.0135116 3000.11 2904.61 2991.38 2929.26 2801.73 2961.43 0 0 0 1979.83 2519.68 2980.46 2915.78 2571.77 3007.4 2902.01 2890.26 2950.9 3035.41 2927.34 3.44463e-06 0.694831 
322 3004.31 25061.3 0 263.684 6.04195e+23 0.0160958 7.77431 0.582128 -0.353115 9.375e-06 1.875e-05 2.16e-06 2.7e-06 5.0625e-12 0.85091 0.000444168 0.000222691 0.0512498 0.000103154 0.00819131 0 0 0 6.06786e-06 0.00244596 0.0478378 0.00615039 6.06786e-07 0.000195385 0.0123068 0.000401086 0.00713793 0.000121661 0.0122753 0.850898 0.000804634 0.000417392 0.048029 0.000160938 0.0199418 0 0 0 4.92409e-06 0.000153674 0.00601108 0.0107394 4.54284e-07 0.000487728 0.019974 0.000676153 0.0124818 0.000106371 0.029113 3004.72 2924.73 2919.52 2979.12 3319.97 2948.31 0 0 0 3408.5 2681.65 3001.9 2960.23 3727.74 2936.52 2967.31 2997.3 2995.44 2914.18 2999.97 3.45774e-06 0.697476 
403 2999.51 24897.7 0 262.382 6.01211e+23 0.0160212 8.04583 -0.147109 0.204601 1.875e-05 2.8125e-05 2.7e-06 3.24e-06 5.0625e-12 0.77914 0.000786335 0.000348195 0.0731203 0.000153364 0.0123097 0 0 0 1.06715e-05 0.00353713 0.0722967 0.00933997 2.74409e-06 0.000327157 0.0187684 0.000648215 0.0105992 0.000203977 0.0184083 0.77889 0.00142405 0.000652427 0.0685041 0.000239202 0.0299588 0 0 0 8.65728e-06 0.000222163 0.0090817 0.0163039 2.0538e-06 0.000816411 0.0304518 0.00109243 0.0185287 0.000178289 0.0436452 2999.25 2999.41 3120.09 2989.54 2925.97 2960.05 0 0 0 2688.08 2776.54 3006.8 2987.25 2416.28 3034.78 2992.38 2980.91 2988.26 3011.85 2994.88 3.47388e-06 0.700733 
161 3001.22 25111.6 0 264.485 6.06029e+23 0.0161326 8.01545 -0.101149 -0.621157 0 9.375e-06 1.08e-06 1.62e-06 5.0625e-12 0.928877 0.000190257 0.000126737 0.0250924 6.17049e-05 0.00374404 0 0 0 5.14208e-06 0.00133875 0.0226312 0.00287835 6.0495e-07 0.000100422 0.00574703 0.000178158 0.00334416 5.59579e-05 0.00562815 0.929557 0.000344918 0.000237722 0.0235331 9.63424e-05 0.00912168 0 0 0 4.17592e-06 8.41739e-05 0.00284585 0.00502976 4.53248e-07 0.000250864 0.0093344 0.000300564 0.00585217 4.89621e-05 0.0133581 2999.95 2988.82 2941.77 2935.72 2886.85 2907.36 0 0 0 2025.89 2538.64 2989.68 2872.3 368.682 2942.58 2905.54 3058.45 2909.15 2804.04 2926.41 3.44506e-06 0.694919 
242 2999.47 25010.2 0 263.57 6.03934e+23 0.0160837 7.42698 -0.310349 0.200952 9.375e-06 1.875e-05 1.62e-06 2.16e-06 5.0625e-12 0.85091 0.000461357 0.000242819 0.0511857 0.000103805 0.00815691 0 0 0 3.94581e-06 0.00255324 0.0479401 0.00618157 0 0.000207914 0.01212 0.000400348 0.00717774 0.00013264 0.012222 0.851172 0.000836043 0.000455267 0.0479844 0.000162007 0.0198644 0 0 0 3.20307e-06 0.000160467 0.00602588 0.0107974 0 0.00051917 0.0196772 0.000675127 0.0125555 0.000116008 0.028996 3000.25 2926.6 2892.98 2989.02 3132.5 2981.01 0 0 0 2631.27 2676.93 2977.55 2968.09 0 3023.52 2962.5 3033.35 2989.07 3081.31 2967.33 3.45768e-06 0.697464 
323 3000.52 24880.4 0 262.11 6.00588e+23 0.0160056 7.59914 0.176677 -0.157927 1.875e-05 2.8125e-05 2.16e-06 2.7e-06 5.0625e-12 0.778533 0.000766396 0.000328412 0.0732849 0.000145893 0.0124452 0 0 3.05215e-07 1.09877e-05 0.00355087 0.0725631 0.00929625 6.10431e-07 0.000338179 0.0187283 0.000638816 0.0105983 0.000209988 0.0185608 0.778235 0.00138786 0.00061532 0.0686541 0.000227535 0.0302866 0 0 1.48555e-06 8.91331e-06 0.000223012 0.00911459 0.0162266 4.56844e-07 0.000843863 0.0303849 0.00107652 0.018526 0.000183531 0.0440039 3001.35 2945.33 3022.17 2997.4 3132.88 2975.14 0 0 0 2512.05 2806.97 2994.86 2973.37 965.541 2947.84 2991.17 2938.9 2961.01 2976.36 2991.26 3.47594e-06 0.701148 
81 3002.5 25132.5 0 264.592 6.06274e+23 0.0161389 6.6221 -0.734445 -0.421376 0 9.375e-06 5.4e-07 1.08e-06 5.0625e-12 0.928699 0.000172039 0.000110056 0.025323 5.2307e-05 0.00375734 0 0 0 4.83765e-06 0.00133368 0.0226296 0.00296759 9.07059e-07 9.252e-05 0.0056162 0.000180202 0.00334977 6.04706e-05 0.00565067 0.929392 0.000311895 0.000206437 0.0237496 8.16703e-05 0.00915422 0 0 0 3.92875e-06 8.3856e-05 0.0028457 0.00518578 6.79607e-07 0.000231128 0.00912205 0.000304017 0.00586206 5.29114e-05 0.0134118 3001.17 2910.28 3194.38 2937.95 2930 2932.19 0 0 0 1681.69 2546.03 2988.66 2938.12 2605.01 3173.01 2953.58 3015.82 2910.56 2945.16 2990.68 3.44363e-06 0.694629 
162 3002.13 25024.7 0 263.489 6.03748e+23 0.0160835 5.97278 1.51802 -0.259402 9.375e-06 1.875e-05 1.08e-06 1.62e-06 5.0625e-12 0.85108 0.000466964 0.000241983 0.0512728 0.000107177 0.00820284 0 0 0 7.89406e-06 0.00246264 0.047726 0.00613156 9.10853e-07 0.000203424 0.0122358 0.000418993 0.00711559 0.000128734 0.0121969 0.851088 0.000845952 0.000453564 0.0480518 0.000167219 0.0199703 0 0 0 6.40621e-06 0.000154726 0.00599717 0.0107068 6.81948e-07 0.000507807 0.0198592 0.000706357 0.012443 0.000112559 0.0289279 3002.1 2921.63 2852.11 2985.28 2983.86 2989.94 0 0 0 3279.53 2710.51 2992.79 2988.45 1918.25 2944.77 3010.68 3042.29 2981.96 2984.56 2964.93 3.45882e-06 0.697695 
243 3000.75 24870.8 0 261.989 6.00311e+23 0.016002 7.73182 -0.305708 -0.253926 1.875e-05 2.8125e-05 1.62e-06 2.16e-06 5.0625e-12 0.778698 0.00078049 0.000334059 0.0734332 0.000146571 0.0123477 0 0 0 1.19089e-05 0.00354427 0.0722374 0.0093387 3.35892e-06 0.000312684 0.0186728 0.000653462 0.0106539 0.000218635 0.0186124 0.778216 0.00141305 0.000625754 0.0687767 0.000228538 0.0300423 0 0 0 9.65824e-06 0.000222544 0.00907153 0.0162968 2.51321e-06 0.000780063 0.0302877 0.00110094 0.0186187 0.000191043 0.0441158 3003.06 2885.1 3086.72 2987.92 3034.29 2962.27 0 0 0 3211.84 2766.41 2993.02 2996.32 1709.71 2943.17 2981.78 3037.07 2999.26 2972.06 2968.44 3.47872e-06 0.701709 
164 2999.99 24761.9 0 260.909 5.97835e+23 0.0159529 7.37176 -0.0853352 -0.385139 2.8125e-05 3.75e-05 1.08e-06 1.62e-06 5.0625e-12 0.711877 0.00112775 0.000434481 0.0918693 0.00022414 0.0164352 0 0 3.06621e-07 1.47178e-05 0.00461065 0.0956319 0.0123899 4.90593e-06 0.000387875 0.0251953 0.000950524 0.0137317 0.000340349 0.024774 0.710682 0.00203958 0.000812999 0.0859525 0.000349115 0.0399449 0 0 1.49046e-06 1.19236e-05 0.000289195 0.0119967 0.0215985 3.66682e-06 0.000966617 0.040824 0.00159973 0.0239721 0.000297082 0.0586582 3001.8 3045.95 2996.07 2992.96 2928.78 2997.37 0 0 0 3013.35 2821.22 2997.41 2974.19 1696.91 2987.44 2987.5 2911.79 2997.78 2965.66 2989.25 3.49254e-06 0.704496 
245 2999.31 24640.2 0 259.685 5.95031e+23 0.0159264 7.77188 0.749547 -0.146766 3.75e-05 4.6875e-05 1.62e-06 2.16e-06 5.0625e-12 0.647961 0.00154341 0.000526792 0.106922 0.00026432 0.0212303 0 0 6.16131e-07 1.44791e-05 0.00595152 0.118389 0.0156174 4.62099e-06 0.000490133 0.0314181 0.00132869 0.0165419 0.000434373 0.0313611 0.644912 0.00278286 0.000982743 0.0997321 0.000410452 0.0514429 0 0 2.98588e-06 1.16947e-05 0.000372167 0.0148065 0.0271422 3.44338e-06 0.00121775 0.0507524 0.0022294 0.0287904 0.000378003 0.0740295 3002.27 2970.53 2995.61 2993.5 2988.09 2987.6 0 0 2.90614e-13 2850.03 2853.21 2993.81 2982.29 2255.76 3082.98 2988.52 3063.55 3005.48 2982.67 2988.29 3.51119e-06 0.708259 
326 2997.56 24514.2 0 258.507 5.92333e+23 0.0159266 6.75207 -0.442091 1.28464 4.6875e-05 5.625e-05 2.16e-06 2.7e-06 5.0625e-12 0.589457 0.00189766 0.000584278 0.118961 0.000322157 0.0259344 0 0 9.28407e-07 2.07344e-05 0.00719577 0.139314 0.0189906 8.0462e-06 0.00058273 0.0375497 0.00176335 0.0188272 0.000510933 0.0380789 0.584016 0.00340604 0.00108503 0.110457 0.000497989 0.0625556 0 0 4.47877e-06 1.6671e-05 0.000447928 0.0173442 0.0328545 5.96844e-06 0.00144123 0.0603816 0.00294527 0.0326188 0.000442607 0.0894786 2997.93 3031.32 2894.98 2994.75 3013.94 3004.83 0 0 2345.85 2877.83 2891.08 2991.3 2985.29 2679.32 3032.14 3002.75 2962.5 3008.36 3056.96 3003.26 3.5271e-06 0.711468 
163 2999.13 24877.9 0 262.206 6.00807e+23 0.0160125 5.98669 0.148638 -0.822267 1.875e-05 2.8125e-05 1.08e-06 1.62e-06 5.0625e-12 0.779239 0.000784117 0.00032402 0.0733357 0.000157434 0.0123167 0 0 0 9.76333e-06 0.00357734 0.072093 0.00926265 1.22042e-06 0.000327377 0.0185845 0.00063187 0.0106164 0.000199843 0.018539 0.778891 0.00141986 0.000607054 0.0686973 0.000245518 0.0299722 0 0 0 7.91954e-06 0.00022466 0.00905496 0.0161669 9.13297e-07 0.000816857 0.0301496 0.00106475 0.0185564 0.000174653 0.0439496 3000.26 2980.85 2964.22 2988.22 3076.97 2997.09 0 0 0 2107.98 2804.12 2994.01 3011.56 2145.5 2963.1 2981.82 3024.26 2972.3 2846.07 2983.58 3.4763e-06 0.70122 
244 2999.48 24740.7 0 260.729 5.97424e+23 0.015947 8.74786 -0.991628 -0.799971 2.8125e-05 3.75e-05 1.62e-06 2.16e-06 5.0625e-12 0.711507 0.00118498 0.000425882 0.0917669 0.000218157 0.0165735 0 0 3.06832e-07 1.93304e-05 0.00470219 0.0956195 0.0124205 6.13663e-06 0.000405018 0.0253609 0.000923563 0.0137568 0.000333526 0.0247754 0.710087 0.00214241 0.000796655 0.0858293 0.000339689 0.0402683 0 0 1.49101e-06 1.56556e-05 0.000294843 0.0119913 0.021645 4.58522e-06 0.00100902 0.0410791 0.00155386 0.0240082 0.000291033 0.0586428 3000.53 3050.11 2884.21 2996.18 2966.66 3006.15 0 0 0 2734.64 2849.01 2999.33 2985.02 3364.81 2943.48 2971.8 3048.71 2997.17 3084.81 2977.89 3.49544e-06 0.705081 
325 2997.32 24617.9 0 259.622 5.94887e+23 0.01593 6.32106 -0.952428 0.501256 3.75e-05 4.6875e-05 2.16e-06 2.7e-06 5.0625e-12 0.648318 0.00154008 0.000546333 0.106833 0.000269315 0.0212882 0 0 3.0814e-07 1.60233e-05 0.00590427 0.11804 0.015684 4.6221e-06 0.000492716 0.0313591 0.00135767 0.0165816 0.000439716 0.0313246 0.644966 0.00277556 0.00101872 0.0996028 0.000418011 0.0515589 0 0 1.4926e-06 1.29359e-05 0.00036904 0.0147559 0.0272453 3.4426e-06 0.0012236 0.0506335 0.00227696 0.0288461 0.000382474 0.0739088 2999.33 3005.62 2950.71 2990.53 3019.93 3000.66 0 0 0 3245.1 2873.27 2992.44 2988.53 3028.74 3127.62 2994.67 2944.86 2985.99 2991.77 2989.08 3.51069e-06 0.708157 
84 2997.33 24718.2 0 260.68 5.9731e+23 0.0159421 5.04666 0.242174 -1.35603 2.8125e-05 3.75e-05 5.4e-07 1.08e-06 5.0625e-12 0.711549 0.00116495 0.000436705 0.0918853 0.000217278 0.0166055 0 0 1.53445e-06 1.44238e-05 0.00466657 0.0957181 0.0125196 6.75158e-06 0.000400492 0.0250441 0.000926194 0.0136747 0.000332362 0.0248363 0.710215 0.00210645 0.000816999 0.0859506 0.000338361 0.040351 0 0 7.45736e-06 1.16832e-05 0.000292645 0.0120051 0.0218203 5.04532e-06 0.000997862 0.0405709 0.00155848 0.0238679 0.000290053 0.0587941 2998.05 2983.21 2915.88 2988.15 2780.6 2999.07 0 0 65.1897 3079.53 2863.57 2989.84 3004.35 3310.33 3023.24 3006.02 3036.01 2990.8 3004.25 3004.92 3.49367e-06 0.704724 
165 2999.76 24640.8 0 259.652 5.94956e+23 0.0159208 7.99501 -0.0772695 1.70512 3.75e-05 4.6875e-05 1.08e-06 1.62e-06 5.0625e-12 0.647362 0.00154329 0.000556744 0.107102 0.00026497 0.0211347 0 0 6.16209e-07 1.87944e-05 0.00598462 0.118641 0.0157062 5.23777e-06 0.000490194 0.0315536 0.00128788 0.0165249 0.000434119 0.0313891 0.644461 0.00278327 0.00103885 0.0999228 0.000411552 0.0512227 0 0 2.98693e-06 1.51835e-05 0.000374321 0.0148413 0.0273028 3.90386e-06 0.00121817 0.0509827 0.00216141 0.0287673 0.000377867 0.0741122 3000.71 2968.4 2892.33 2987.29 2916.15 2996.65 0 0 6085.09 2591.58 2856.08 3003.71 2972.48 2864.75 3088.64 3007.13 3041.3 3010.56 3013.79 2999.25 3.51092e-06 0.708203 
246 2997.03 24516.3 0 258.576 5.92489e+23 0.0159336 8.20774 -0.714112 0.78941 4.6875e-05 5.625e-05 1.62e-06 2.16e-06 5.0625e-12 0.589258 0.00196059 0.000589692 0.118774 0.000324547 0.0258926 0 0 9.28162e-07 1.9182e-05 0.00728669 0.139275 0.0190514 5.87836e-06 0.000547306 0.0376311 0.00176134 0.0189701 0.000520389 0.0381307 0.583716 0.00351836 0.00109489 0.110265 0.000501595 0.0624437 0 0 4.47679e-06 1.54201e-05 0.000453508 0.0173363 0.0329541 4.35964e-06 0.00135338 0.0605017 0.00294139 0.0328607 0.000450719 0.0895846 2997.85 3004.44 3041.41 2988.33 2998.8 3011.44 0 0 1613.15 2769.14 2878.98 2992.63 3001.15 3618.89 3117.79 3004.57 2984.09 3031.75 2873.12 2986.45 3.52227e-06 0.710492 
4 2997.97 24748.9 0 260.947 5.97923e+23 0.01596 5.70604 -0.184735 1.10465 2.8125e-05 3.75e-05 0 5.4e-07 5.0625e-12 0.711909 0.00115518 0.000431045 0.0917136 0.000230545 0.0164689 0 0 0 2.05406e-05 0.00467926 0.0955593 0.0124099 4.59863e-06 0.000439629 0.0250635 0.000954063 0.0137076 0.000317306 0.0249365 0.710502 0.00208856 0.000806329 0.0857813 0.000358985 0.040015 0 0 0 1.6636e-05 0.000293411 0.011984 0.0216269 3.43612e-06 0.00109527 0.0405982 0.00160521 0.0239229 0.000276885 0.0590254 2999.9 3003.7 2948.27 2985.52 3064.89 3006.14 0 0 0 3041.55 2832.91 2991.54 2990.69 2454.11 3062.89 2992.55 2986.79 3012.32 2930.46 3001.25 3.49248e-06 0.704484 
85 2998.83 24606.2 0 259.368 5.94305e+23 0.0159096 7.32752 0.204492 0.484278 3.75e-05 4.6875e-05 5.4e-07 1.08e-06 5.0625e-12 0.647766 0.00152648 0.000513556 0.10729 0.000276056 0.0209923 0 0 6.16884e-07 1.69643e-05 0.00599118 0.118117 0.0156519 4.93507e-06 0.000493816 0.0315194 0.00130841 0.0165519 0.000429351 0.0315499 0.644612 0.00275188 0.000957893 0.10006 0.000428605 0.0508577 0 0 2.98904e-06 1.36998e-05 0.000374586 0.01477 0.0271977 3.67682e-06 0.0012267 0.0509077 0.00219502 0.0288032 0.000373572 0.074463 3001.98 2938.69 2948.91 2990.26 2968.81 2997.5 0 0 1773.52 3348.53 2881.9 2997.52 2985.62 3155.89 2989.88 3000.03 2965.37 3000.08 2988.23 2969.05 3.51067e-06 0.708153 
166 2999.39 24529.1 0 258.508 5.92333e+23 0.0159232 6.73103 -0.291425 0.578232 4.6875e-05 5.625e-05 1.08e-06 1.62e-06 5.0625e-12 0.589012 0.00190571 0.000585824 0.119041 0.000334226 0.0261235 0 0 1.23787e-06 2.25912e-05 0.00724311 0.13958 0.0189902 1.11409e-05 0.000556115 0.0376103 0.00172807 0.0187755 0.000515265 0.0379644 0.583701 0.00342122 0.00108813 0.110556 0.000516757 0.0630252 0 0 5.97298e-06 1.81678e-05 0.000450973 0.0173811 0.0328611 8.26578e-06 0.0013757 0.0604922 0.00288697 0.0325363 0.000446456 0.0892288 3002.36 2964.74 3057.74 2992.13 3110.15 2987.38 0 0 2881.28 3058.96 2883.42 2992.3 2986.52 2489.32 3076.02 3001.61 3007.03 2998.31 2908.38 3009.45 3.52615e-06 0.711275 
5 2996.38 24618.6 0 259.711 5.95092e+23 0.0159347 5.54943 -0.769583 -0.146674 3.75e-05 4.6875e-05 0 5.4e-07 5.0625e-12 0.647725 0.0015297 0.000512261 0.10715 0.000279079 0.0211204 0 0 6.16069e-07 1.72499e-05 0.00589177 0.118207 0.0156799 7.08479e-06 0.000499324 0.0314786 0.00130021 0.016588 0.000447266 0.0315667 0.644407 0.00275698 0.000955235 0.0999037 0.000433189 0.051155 0 0 2.98433e-06 1.39269e-05 0.000368277 0.0147774 0.0272394 5.2771e-06 0.00124007 0.050829 0.00218071 0.0288585 0.00038906 0.0744838 2996.6 3032.65 3017.77 2996.58 2880.37 3007.05 0 0 4114.63 2609.14 2901.87 2990.21 2994.79 2360.39 3008.82 2997.02 3024.29 2994.09 3017.41 3000.18 3.50896e-06 0.707809 
86 2999.26 24511.4 0 258.332 5.91932e+23 0.0159114 6.85431 0.719637 -1.02457 4.6875e-05 5.625e-05 5.4e-07 1.08e-06 5.0625e-12 0.589193 0.00190917 0.000594583 0.119061 0.000319588 0.0260056 0 0 6.19357e-07 2.44646e-05 0.00731802 0.139378 0.0190421 5.26454e-06 0.000548441 0.0375615 0.00171748 0.0189142 0.000511899 0.0378957 0.583917 0.00342765 0.00110447 0.110581 0.000494156 0.0627447 0 0 2.9887e-06 1.96756e-05 0.000455665 0.017357 0.032953 3.90618e-06 0.0013568 0.0604174 0.00286945 0.0327789 0.000443567 0.0890729 3000.54 3055.43 3171.42 2987.78 3078.27 3000.18 0 0 735.711 3122.92 2870.07 2997.95 3009.38 2166.61 2975.65 3000.83 3024.82 3018.42 3019.29 2997.95 3.52674e-06 0.711394 