ITEM: TIMESTEP
100000
ITEM: NUMBER OF CELLS
800
ITEM: BOX BOUNDS oo ss pp
0 0.00075
0 5.4e-06
-2.7e-07 2.7e-07
ITEM: CELLS id f_8[1] f_8[2] f_8[3] f_8[4] f_8[5] f_8[6] f_8[7] f_8[8] f_8[9] f_8[10] f_8[11] f_8[12] f_8[13] f_8[14] f_8[15] f_8[16] f_8[17] f_8[18] f_8[19] f_8[20] f_8[21] f_8[22] f_8[23] f_8[24] f_8[25] f_8[26] f_8[27] f_8[28] f_8[29] f_8[30] f_8[31] f_8[32] f_8[33] f_8[34] f_8[35] f_8[36] f_8[37] f_8[38] f_8[39] f_8[40] f_8[41] f_8[42] f_8[43] f_8[44] f_8[45] f_8[46] f_8[47] f_8[48] f_8[49] f_8[50] f_8[51] f_8[52] f_8[53] f_8[54] f_8[55] f_8[56] f_8[57] f_8[58] f_8[59] f_8[60] f_8[61] f_8[62] f_8[63] f_8[64] f_8[65] f_8[66] f_8[67] f_8[68] f_8[69] f_8[70] f_8[71] f_8[72] f_8[73] f_8[74] f_MFP[1] f_MFP[2] 
1 3003.03 25140.1 0 264.625 6.06351e+23 0.0161407 6.19087 0.666651 -0.369628 0 9.375e-06 0 5.4e-07 5.0625e-12 0.928863 0.000179424 0.000109891 0.0251378 4.86727e-05 0.00369308 0 0 0 3.77893e-06 0.00132701 0.0226104 0.00296692 1.51157e-07 0.000100217 0.00573854 0.000184261 0.00339363 5.36608e-05 0.00558965 0.929569 0.000325288 0.000206131 0.0235762 7.59967e-05 0.00899777 0 0 0 3.06899e-06 8.34378e-05 0.00284332 0.00518466 1.13255e-07 0.00025036 0.00932087 0.000310868 0.0059389 4.69536e-05 0.0132671 3002.33 3073.88 2992.01 2954.07 3070.11 2943.88 0 0 0 1867.02 2551.02 2998.67 2927.48 0 2811.52 2962.03 2962.81 2973.65 2771.98 2954.64 3.44499e-06 0.694906 
82 3001.19 25003.2 0 263.345 6.03417e+23 0.016066 6.04489 0.667603 0.717247 9.375e-06 1.875e-05 5.4e-07 1.08e-06 5.0625e-12 0.851271 0.000440639 0.000249407 0.051232 0.000103742 0.00808567 0 0 0 7.5946e-06 0.00247508 0.0478812 0.00618383 1.51892e-06 0.000198067 0.0121956 0.000409197 0.00705508 0.000134728 0.0120756 0.851742 0.000798696 0.000467732 0.0480396 0.000161948 0.0196958 0 0 0 6.16654e-06 0.000155592 0.00601995 0.010804 1.13782e-06 0.000494704 0.0198047 0.000690219 0.0123439 0.000117864 0.0286556 3001.98 3003.51 2892.39 2978.41 2961.07 2974.84 0 0 0 3002.39 2743.95 2996.16 2960.86 3258.12 2932.87 2989.92 2972.29 2971.04 2981.32 2987.89 3.4599e-06 0.697912 
2 2998.96 24998.5 0 263.492 6.03756e+23 0.016076 5.1944 -0.170913 -0.176553 9.375e-06 1.875e-05 0 5.4e-07 5.0625e-12 0.851427 0.00044191 0.000240159 0.0510832 9.60938e-05 0.00800691 0 0 0 7.43854e-06 0.00243028 0.0478622 0.00627418 7.59035e-07 0.000196286 0.0121585 0.000413674 0.00713295 0.000141029 0.012087 0.851846 0.00080095 0.000450361 0.0478971 0.000149999 0.0195027 0 0 0 6.03945e-06 0.000152767 0.00601718 0.0109611 5.68556e-07 0.000490226 0.0197433 0.000697727 0.0124794 0.000123368 0.028681 2999.86 2983.62 3064.7 2984.24 2997.52 2986.17 0 0 0 2881.34 2730.64 2987.06 2976.42 4134.11 2882.97 2986.59 3027.05 2993.19 2975.37 2986.6 3.45914e-06 0.697759 
83 2999.6 24882 0 262.207 6.00811e+23 0.0160123 7.27245 -0.562313 -0.377863 1.875e-05 2.8125e-05 5.4e-07 1.08e-06 5.0625e-12 0.779487 0.000758331 0.000338053 0.0729717 0.000138211 0.0122799 0 0 0 1.60179e-05 0.00353949 0.0721533 0.00947617 1.37296e-06 0.000314408 0.0185941 0.000633239 0.0106012 0.000218148 0.018479 0.779152 0.00137319 0.000633355 0.0683575 0.000215544 0.0298831 0 0 0 1.29931e-05 0.000222286 0.00906269 0.0165398 1.02747e-06 0.000784511 0.0301658 0.00106708 0.0185302 0.000190654 0.043808 2999.23 2937.66 2965.9 2997.05 3042.44 2977.42 0 0 0 2705.44 2805.84 3002.66 2993.47 1991 3026.04 2991.37 2948.71 2995.16 3075.34 2992.56 3.47488e-06 0.700935 
3 2997.91 24883.1 0 262.367 6.01176e+23 0.0160267 6.28039 -0.101491 0.0431966 1.875e-05 2.8125e-05 0 5.4e-07 5.0625e-12 0.779598 0.000761529 0.000336628 0.0730768 0.00013889 0.0123276 0 0 3.04917e-07 1.41786e-05 0.00349877 0.0719539 0.00942833 2.13442e-06 0.000304002 0.0185773 0.000640782 0.0105986 0.000212679 0.0185299 0.779037 0.00137858 0.000630502 0.068436 0.000216539 0.0299905 0 0 1.4836e-06 1.14979e-05 0.000219665 0.00903503 0.0164516 1.59685e-06 0.000758326 0.0301298 0.00107947 0.0185203 0.000185821 0.0439161 2998.92 3052.63 2958.55 2983.49 3174.95 2996.11 0 0 3111.95 3105.83 2821.01 2997.21 2983.88 1575.32 2956.67 2986.8 3065.27 3000.4 2917.96 2996.3 3.4726e-06 0.700474 
721 3000.28 25120.5 0 264.661 6.06434e+23 0.0161435 5.36097 -0.995394 -0.364415 0 9.375e-06 4.86e-06 5.4e-06 5.0625e-12 0.928725 0.000176074 0.000121816 0.0251796 4.50387e-05 0.00371206 0 0 0 3.47614e-06 0.0013371 0.0226508 0.00297301 1.51136e-07 9.59717e-05 0.00573382 0.000190734 0.00334193 5.92455e-05 0.00565402 0.929399 0.000319204 0.000228491 0.0236147 7.03202e-05 0.00904372 0 0 0 2.82298e-06 8.40696e-05 0.00284831 0.00519513 1.13236e-07 0.000239746 0.00931288 0.000321779 0.00584822 5.18384e-05 0.0134194 2999.3 3096.94 2863.7 2951.12 3148.89 2945.68 0 0 0 2196.77 2563.51 3006.28 2943.33 0 3132.03 2972.18 2983.23 2946.65 2743.72 2946.72 3.44253e-06 0.694409 
641 3003.84 25141.2 0 264.565 6.06213e+23 0.0161386 6.36149 -0.841832 0.178226 0 9.375e-06 4.32e-06 4.86e-06 5.0625e-12 0.928888 0.000177197 0.000118383 0.0251401 4.23336e-05 0.00371508 0 0 0 4.83813e-06 0.00134878 0.0225684 0.00295428 1.51192e-07 9.91817e-05 0.00565804 0.000177952 0.00335948 5.89647e-05 0.00568904 0.929506 0.00032122 0.000222038 0.0235762 6.60928e-05 0.00905053 0 0 0 3.92883e-06 8.47986e-05 0.00283776 0.0051621 1.1327e-07 0.000247749 0.00918926 0.000300197 0.00587857 5.15896e-05 0.0135017 3002.52 2981.33 2981.51 2947.45 2868.69 2920.91 0 0 0 2234.94 2598.8 2997.81 2918.59 0 2951.92 2923.95 2914.73 2982.43 2735.83 2917.61 3.44561e-06 0.69503 
722 3000.95 25018.6 0 263.529 6.0384e+23 0.0160781 5.74315 -0.259318 0.631328 9.375e-06 1.875e-05 4.86e-06 5.4e-06 5.0625e-12 0.851428 0.000440634 0.000242098 0.0510626 9.56251e-05 0.00799502 0 0 0 7.58929e-06 0.00247745 0.0478157 0.00628469 6.07144e-07 0.000191706 0.0122063 0.000408456 0.00712604 0.000138277 0.0120791 0.851853 0.000798644 0.000454002 0.0478782 0.000149269 0.0194739 0 0 0 6.1619e-06 0.000155733 0.00601139 0.0109796 4.54785e-07 0.000478789 0.019821 0.000688931 0.0124674 0.000120962 0.0286625 3002.08 3090.61 2924.32 2982.26 2996.18 2979.37 0 0 0 2548.73 2713.31 2993.26 2970.7 993.496 3061.09 2993.58 2943.56 2996.07 2951.46 2978.35 3.45798e-06 0.697525 
561 3001.28 25105.9 0 264.42 6.05881e+23 0.016129 6.63341 -0.424796 -0.824344 0 9.375e-06 3.78e-06 4.32e-06 5.0625e-12 0.929125 0.000177294 0.000119507 0.024994 4.68951e-05 0.00367279 0 0 0 2.57167e-06 0.00135542 0.0225269 0.00294713 0 0.000102262 0.00569806 0.000185311 0.00332532 5.49127e-05 0.00566674 0.929784 0.00032141 0.000224156 0.0234403 7.32176e-05 0.00894791 0 0 0 2.08843e-06 8.52198e-05 0.00283268 0.00514983 0 0.000255454 0.00925465 0.000312625 0.00581905 4.80465e-05 0.0134494 3000.01 2999.11 2960.96 2933.56 2754.19 2932.76 0 0 0 3276.83 2481.23 2982.87 2929.31 0 3081.36 2922.88 2749.49 2927.29 3132.33 2906.06 3.44672e-06 0.695253 
642 3000.35 25017.8 0 263.573 6.03941e+23 0.0160801 7.39186 -0.376602 1.32874 9.375e-06 1.875e-05 4.32e-06 4.86e-06 5.0625e-12 0.851498 0.000439347 0.000246763 0.0510006 9.86443e-05 0.00797775 0 0 0 7.58802e-06 0.00246277 0.0478346 0.00632492 1.5176e-07 0.000191977 0.0122317 0.00041203 0.00709587 0.000133853 0.0120436 0.851958 0.000796342 0.000462767 0.047822 0.000153988 0.0194326 0 0 0 6.16112e-06 0.000154816 0.00601401 0.0110503 1.13682e-07 0.000479486 0.0198631 0.000694987 0.0124151 0.000117096 0.0285793 3001.54 3037.68 2880.41 2975.79 3120.24 2966.73 0 0 0 2936.09 2716.34 2993.24 2972.21 0 2958.17 2987.16 2938.06 2963.9 3076.17 2979.81 3.45834e-06 0.697597 
723 2997.97 24883.3 0 262.365 6.01171e+23 0.0160212 5.80141 0.314721 -1.14486 1.875e-05 2.8125e-05 4.86e-06 5.4e-06 5.0625e-12 0.779693 0.000769769 0.0003316 0.0729213 0.000143312 0.0121952 0 0 1.5246e-07 1.14345e-05 0.00346465 0.0721899 0.00938618 1.21968e-06 0.000311932 0.0184959 0.000644447 0.0106676 0.000219542 0.0185525 0.779394 0.00139396 0.000621293 0.0683134 0.000223509 0.0296784 0 0 7.42054e-07 9.27568e-06 0.000217596 0.00906771 0.0163835 9.12802e-07 0.00077837 0.0300079 0.00108601 0.0186471 0.000191881 0.0439843 2999.17 2964.76 3029.17 2993.52 3015.35 2990.49 0 0 0 2546.13 2790.46 2992.3 2993.84 2991.79 3056.69 2986.01 3007.17 2982.83 3111.62 2986.85 3.47443e-06 0.700843 
481 3002.18 25130.5 0 264.599 6.06292e+23 0.0161402 7.21785 0.744285 -0.916203 0 9.375e-06 3.24e-06 3.78e-06 5.0625e-12 0.929032 0.000176871 0.000119728 0.0251467 4.67121e-05 0.0036759 0 0 0 5.74454e-06 0.00133893 0.0224932 0.00294755 1.51172e-07 0.000100378 0.00574605 0.000175813 0.00328406 5.29102e-05 0.00565731 0.929676 0.000320639 0.000224567 0.023583 7.29307e-05 0.00895532 0 0 0 4.665e-06 8.41817e-05 0.00282839 0.00515048 1.13258e-07 0.000250745 0.00933244 0.000296596 0.00574676 4.62937e-05 0.0134268 3001.07 2949.88 2884.87 2928 2964.88 2903.59 0 0 0 2811.17 2533.73 2981.99 2935.63 0 2922.69 2885.48 2645.19 2918.17 2926.1 2914.19 3.44556e-06 0.69502 
562 3000.47 25008.7 0 263.467 6.03696e+23 0.0160715 7.6934 -0.583752 -1.31315 9.375e-06 1.875e-05 3.78e-06 4.32e-06 5.0625e-12 0.851461 0.000428593 0.00025081 0.0511617 9.95952e-05 0.00792116 0 0 0 6.52834e-06 0.0024378 0.0478534 0.00628436 1.21458e-06 0.000187196 0.0121647 0.000408249 0.00715719 0.000135425 0.012041 0.852031 0.000776951 0.000470418 0.0479792 0.000155492 0.0192973 0 0 0 5.30139e-06 0.000153267 0.00601714 0.0109809 9.0994e-07 0.000467606 0.0197569 0.000688699 0.012524 0.000118487 0.0285769 3001.08 2958.78 2914.66 2975.73 3005.63 2980.48 0 0 0 2586.96 2735.8 2995.38 2984.16 3812.7 3021.11 2973.87 3015.14 2974.91 3021.39 2968.91 3.45887e-06 0.697704 
643 2999.61 24879.2 0 262.177 6.00742e+23 0.0160103 6.21992 -0.269791 -1.14194 1.875e-05 2.8125e-05 4.32e-06 4.86e-06 5.0625e-12 0.7799 0.000771844 0.000322072 0.0728579 0.000143262 0.0121905 0 0 0 1.28158e-05 0.00351548 0.0720209 0.00940692 2.28853e-06 0.00031124 0.0185267 0.000645975 0.0106827 0.000210087 0.0184793 0.779573 0.00139767 0.00060342 0.0682515 0.000223423 0.0296659 0 0 0 1.03958e-05 0.000220781 0.00904615 0.0164191 1.71266e-06 0.000776614 0.0300567 0.00108855 0.0186728 0.000183611 0.0438091 3000.84 2984.28 2999.43 2987.64 3110.84 2989.11 0 0 0 2941.09 2809.67 2993.92 2989.79 2416.98 3003.4 2990.58 3042.96 3002.41 3075.74 2981.25 3.47432e-06 0.70082 
401 3002.77 25127.9 0 264.52 6.06111e+23 0.0161332 7.19421 0.270655 0.0943391 0 9.375e-06 2.7e-06 3.24e-06 5.0625e-12 0.929156 0.000186753 0.000119764 0.0250399 5.02041e-05 0.00367533 0 0 0 3.47799e-06 0.00136262 0.0225326 0.00295115 3.02434e-07 0.000100711 0.00565476 0.000180856 0.00332043 6.336e-05 0.00560184 0.929931 0.000338601 0.000224666 0.0234862 7.83936e-05 0.0089552 0 0 0 2.8248e-06 8.5683e-05 0.00283374 0.0051575 2.26616e-07 0.000251611 0.00918548 0.000305146 0.00581122 5.54445e-05 0.013297 3001.68 2934.1 2951.09 2920.75 2998.76 2913.46 0 0 0 2613.15 2502.74 2979.96 2876.76 7652.94 2737.38 2915.75 2893.14 2935.91 2733.18 2904.75 3.44575e-06 0.695058 
482 2999.33 25010.5 0 263.586 6.0397e+23 0.0160781 7.77494 -0.530821 0.837709 9.375e-06 1.875e-05 3.24e-06 3.78e-06 5.0625e-12 0.851188 0.000434773 0.000240073 0.0513967 9.45422e-05 0.00801621 0 0 0 6.98064e-06 0.00251045 0.0478635 0.00629275 7.58766e-07 0.000194547 0.0121132 0.000405181 0.0070635 0.000133087 0.0120457 0.851794 0.000788187 0.0004503 0.0482016 0.000147609 0.0195297 0 0 0 5.66892e-06 0.000157841 0.00601868 0.010996 5.68479e-07 0.00048599 0.0196741 0.000683552 0.0123606 0.000116447 0.0285893 3000.23 2935.88 3013.75 2975.31 3121.31 2972.49 0 0 0 2293.33 2679.28 2992.48 2967.35 964.055 3152.96 2971.65 2983.88 2960.31 2949.73 2972.04 3.45772e-06 0.697473 
563 2998.6 24869.8 0 262.167 6.00718e+23 0.0160057 6.46785 -0.260135 0.168697 1.875e-05 2.8125e-05 3.78e-06 4.32e-06 5.0625e-12 0.779477 0.000747921 0.000324069 0.0731518 0.000145098 0.0122153 0 0 1.52575e-07 1.02225e-05 0.00356964 0.0721692 0.00942713 1.8309e-06 0.0002963 0.018514 0.000642034 0.0106221 0.000210095 0.0184765 0.779341 0.00135468 0.000607309 0.0685436 0.000226343 0.0297334 0 0 7.4277e-07 8.29426e-06 0.000224237 0.009067 0.0164585 1.37052e-06 0.000739517 0.0300435 0.00108217 0.0185714 0.000183663 0.0438133 2999.25 2985.51 3062.54 2985.14 3134.7 2995.98 0 0 0 2979.41 2764.82 2995.59 2991.03 5317.88 3029.39 2990.33 2926.65 2984.56 3013.86 2999.88 3.47482e-06 0.700922 
321 3000.65 25112.9 0 264.548 6.06175e+23 0.016136 8.91987 0.622274 -0.465408 0 9.375e-06 2.16e-06 2.7e-06 5.0625e-12 0.928815 0.000181441 0.000117332 0.0251903 5.08036e-05 0.00371637 0 0 0 3.62883e-06 0.00134599 0.0226094 0.00292861 3.02402e-07 9.70711e-05 0.00574231 0.000183407 0.0033302 5.7154e-05 0.00563043 0.929522 0.000328946 0.000220088 0.0236255 7.93239e-05 0.00905454 0 0 0 2.94709e-06 8.46314e-05 0.0028432 0.00511773 2.26576e-07 0.0002425 0.00932701 0.000309428 0.0058279 5.00102e-05 0.0133639 2999.47 3153.49 2800.05 2924.57 2763.3 2903.69 0 0 0 2161.36 2475.17 2972.13 2920.16 1339.85 2850.02 2910.7 2853.81 2917.77 2650.53 2899.05 3.44463e-06 0.694832 
402 3000.46 25019.2 0 263.577 6.0395e+23 0.0160786 8.29086 0.407562 0.131458 9.375e-06 1.875e-05 2.7e-06 3.24e-06 5.0625e-12 0.851346 0.00043509 0.000248428 0.0510903 0.00010441 0.0079937 0 0 0 7.28439e-06 0.00248079 0.0479159 0.00627595 6.07032e-07 0.000192126 0.012164 0.000412782 0.0071516 0.000139314 0.0120417 0.851899 0.000788713 0.000465941 0.0479113 0.000163005 0.0194736 0 0 0 5.91522e-06 0.000155966 0.00602489 0.010966 4.5477e-07 0.00047991 0.0197553 0.000696332 0.012514 0.000121887 0.028578 3000.97 2979.03 2945.93 2980.74 2924.15 2963.48 0 0 0 3426.73 2696.35 2988.94 2975.86 2791.75 2856.69 2975.86 3011.25 2962.77 3033.82 2985.95 3.45724e-06 0.697376 
483 2998.22 24869.6 0 262.198 6.00789e+23 0.0160098 7.64466 0.262883 -0.271473 1.875e-05 2.8125e-05 3.24e-06 3.78e-06 5.0625e-12 0.779368 0.000762477 0.000320521 0.0732552 0.000153777 0.0121774 0 0 0 1.26622e-05 0.00356586 0.0720573 0.00949817 1.37301e-06 0.000311215 0.0185397 0.000648518 0.0106718 0.0002148 0.0184416 0.779125 0.00138086 0.000600579 0.0686311 0.000239848 0.029637 0 0 0 1.02723e-05 0.000223969 0.0090517 0.0165802 1.02763e-06 0.000776636 0.0300811 0.00109295 0.0186558 0.00018775 0.0437246 2998.83 2956.44 3023.52 2987.17 2905.7 2981.93 0 0 0 2554.4 2751.18 2997.64 2985.42 3144.35 3046.77 2981.09 3026.27 2976.68 3026.52 3001.25 3.47619e-06 0.701197 
241 3001.5 25096.6 0 264.302 6.05611e+23 0.0161215 7.17642 -0.0361114 -0.354851 0 9.375e-06 1.62e-06 2.16e-06 5.0625e-12 0.928877 0.000184788 0.000120014 0.0251518 4.85807e-05 0.00369501 0 0 0 6.05368e-06 0.00134089 0.0225844 0.00296751 4.54026e-07 0.000108512 0.00572178 0.000174195 0.00332483 6.11421e-05 0.00563249 0.929559 0.000335005 0.000225113 0.0235888 7.58512e-05 0.00900225 0 0 0 4.91625e-06 8.43083e-05 0.00283998 0.00518557 3.40171e-07 0.000271075 0.00929341 0.000293878 0.00581834 5.34983e-05 0.0133685 3000.38 2929.16 3086.03 2918.3 2906.06 2934.53 0 0 0 2596.72 2536.5 2969.48 2911.21 2571.77 2928.72 2913.11 2902.81 2948.26 2972.29 2923.99 3.44709e-06 0.695327 
322 3002.02 25028.4 0 263.538 6.03859e+23 0.0160796 7.78321 0.602448 -0.107963 9.375e-06 1.875e-05 2.16e-06 2.7e-06 5.0625e-12 0.851137 0.00044654 0.000232073 0.0512218 9.62292e-05 0.00804333 0 0 0 5.76768e-06 0.00247524 0.047862 0.00627614 3.03562e-07 0.000197771 0.0122671 0.000403889 0.00710487 0.000132505 0.0120969 0.851507 0.000809295 0.000435173 0.0480244 0.000150202 0.0195903 0 0 0 4.68259e-06 0.000155584 0.00601682 0.0109639 2.27371e-07 0.000493904 0.0199185 0.000681184 0.0124296 0.000115905 0.0287029 3002.34 3011.06 2912.99 2977.62 3093.29 2960.74 0 0 0 3661.27 2694.34 2996.28 2966.62 3727.74 3017.4 2973.69 3000.26 2999.21 2808.34 2984.09 3.45848e-06 0.697625 
403 2999.3 24888.3 0 262.301 6.01025e+23 0.0160144 7.46862 -0.391009 -0.567238 1.875e-05 2.8125e-05 2.7e-06 3.24e-06 5.0625e-12 0.779408 0.000779258 0.000338695 0.0731245 0.000136027 0.012186 0 0 0 1.23522e-05 0.00356675 0.0721524 0.00947691 1.37247e-06 0.000314448 0.0185357 0.000633471 0.0107503 0.000214715 0.0183694 0.779249 0.0014114 0.000634701 0.068516 0.000212186 0.0296613 0 0 0 1.0022e-05 0.000224049 0.00906462 0.0165449 1.02734e-06 0.000784789 0.0300777 0.00106771 0.018795 0.000187696 0.0435582 2999.55 3014.16 3125.07 2988.51 2950.41 2982.76 0 0 0 2968.3 2804.31 3000.39 2986.95 2416.28 3019.77 2990.59 2964.28 2978.5 2891.97 2988.43 3.47426e-06 0.700808 
161 3001.45 25106.9 0 264.415 6.05869e+23 0.0161264 7.74516 0.520213 -0.58485 0 9.375e-06 1.08e-06 1.62e-06 5.0625e-12 0.928944 0.000187433 0.000116635 0.0250742 5.00728e-05 0.00366167 0 0 0 4.23577e-06 0.00133911 0.0226266 0.00297668 3.02555e-07 0.00010181 0.00576563 0.00017881 0.00335064 5.68803e-05 0.00556565 0.929739 0.00033984 0.000218801 0.0235189 7.81904e-05 0.00892211 0 0 0 3.44033e-06 8.42065e-05 0.00284562 0.00520223 2.26712e-07 0.000254363 0.00936578 0.000301701 0.00586423 4.97754e-05 0.0132114 3000.27 3000.05 2948.04 2931.38 2951.98 2901.7 0 0 0 2577.5 2551.2 2985.58 2872.15 368.682 2798.78 2915.68 3027.24 2913.63 2809.25 2938.9 3.44667e-06 0.695244 
242 2999.08 25002 0 263.519 6.03816e+23 0.0160754 7.60262 -0.390631 -0.118668 9.375e-06 1.875e-05 1.62e-06 2.16e-06 5.0625e-12 0.851247 0.000459929 0.000230268 0.0511499 9.44145e-05 0.00799624 0 0 0 6.67884e-06 0.00250381 0.047898 0.00627704 0 0.000200213 0.0122089 0.000399971 0.00715364 0.000137675 0.0120363 0.851783 0.000833724 0.000431873 0.0479663 0.000147398 0.0194794 0 0 0 5.42339e-06 0.00015741 0.00602252 0.0109677 0 0.000500102 0.0198279 0.000674708 0.0125173 0.000120451 0.0285647 2999.87 3014 2909.17 2980.96 3003.11 2977 0 0 0 3335.91 2689.91 2984.78 2956.58 0 2972.67 2961.56 3027.53 2985.47 2952.69 2973.86 3.45895e-06 0.69772 
323 3000.67 24888.5 0 262.183 6.00755e+23 0.0160048 8.05334 0.692159 -0.235886 1.875e-05 2.8125e-05 2.16e-06 2.7e-06 5.0625e-12 0.77936 0.000754892 0.00033488 0.0731085 0.000136241 0.0121999 0 0 1.52565e-07 9.91673e-06 0.00355324 0.0722985 0.00950588 9.15391e-07 0.000325574 0.018539 0.000622466 0.0106553 0.00022244 0.0183724 0.779319 0.00136748 0.000627647 0.0685114 0.000212551 0.0296995 0 0 7.42814e-07 8.04715e-06 0.000223234 0.00908435 0.016598 6.85302e-07 0.000812679 0.0300876 0.00104932 0.0186318 0.000194478 0.0435716 3001.23 2971.49 2986.03 2994.1 3069.91 2975.07 0 0 0 2874.29 2825.03 2995.68 2988.17 2702.15 2913.14 2991.67 2951.13 2969.35 3002.67 2995.58 3.47555e-06 0.701069 
81 3003.19 25130 0 264.504 6.06074e+23 0.0161335 6.52008 -0.690859 -0.122142 0 9.375e-06 5.4e-07 1.08e-06 5.0625e-12 0.928835 0.000177691 0.000114327 0.0251724 4.4763e-05 0.00371079 0 0 0 4.53679e-06 0.00132898 0.0226091 0.00299791 4.53679e-07 9.58774e-05 0.00569004 0.00018253 0.00336645 6.23052e-05 0.00560702 0.929531 0.000322143 0.000214449 0.0236084 6.98914e-05 0.00904084 0 0 0 3.68443e-06 8.35606e-05 0.00284312 0.00523877 3.39916e-07 0.000239516 0.009242 0.000307945 0.00589126 5.45169e-05 0.0133082 3002.21 2928.54 3062.66 2936.77 2978.58 2930.78 0 0 0 2898.05 2558.45 2988.59 2928.26 2605.01 2986.33 2948.13 2986.9 2901.13 3043.89 2958.13 3.44575e-06 0.695059 
162 3001.42 25015.6 0 263.456 6.03671e+23 0.0160745 6.52387 0.667418 -0.0901609 9.375e-06 1.875e-05 1.08e-06 1.62e-06 5.0625e-12 0.851229 0.000461406 0.000241862 0.0513149 0.000102332 0.00803718 0 0 0 7.74324e-06 0.00250365 0.0477174 0.00628341 6.07313e-07 0.00019768 0.012227 0.000415402 0.0071089 0.000132546 0.0120187 0.851605 0.000836244 0.000453533 0.048112 0.000159729 0.0195755 0 0 0 6.28653e-06 0.000157371 0.00599868 0.0109767 4.54886e-07 0.000493683 0.0198536 0.000700607 0.0124367 0.000115942 0.0285176 3001.56 2917.95 2944.58 2978.33 2966.96 2997.9 0 0 0 3165.9 2725.26 2998.31 2957.48 2251.9 2906.08 2995.41 2991.84 2978.76 2957.99 2978.34 3.45924e-06 0.697779 
243 2999.56 24878.7 0 262.177 6.00741e+23 0.0160075 7.4443 -0.278001 -0.0950276 1.875e-05 2.8125e-05 1.62e-06 2.16e-06 5.0625e-12 0.779488 0.000766506 0.000327565 0.0730678 0.000142804 0.0122328 0 0 0 1.28158e-05 0.00354219 0.0721655 0.00951831 2.28853e-06 0.000305595 0.0185214 0.000653605 0.0106435 0.000214512 0.0183945 0.779296 0.00138825 0.000613818 0.06846 0.000222748 0.0297739 0 0 0 1.03976e-05 0.000222497 0.00906588 0.0166164 1.71296e-06 0.000762662 0.0300533 0.00110159 0.0186075 0.00018751 0.0436156 3000.73 2930.41 3022.2 2988.27 3094.4 2981.37 0 0 0 3151.66 2793.06 2991.84 3000.01 2390.27 2913.49 2988.61 2995.73 2988.73 2950.25 2983.75 3.47615e-06 0.701189 
164 2999.31 24779.7 0 261.155 5.984e+23 0.0159763 7.3629 -0.164339 -0.046017 2.8125e-05 3.75e-05 1.08e-06 1.62e-06 5.0625e-12 0.712363 0.00111995 0.000452451 0.0915821 0.000206008 0.0165292 0 0 1.53166e-07 1.54697e-05 0.00464582 0.0952782 0.0126415 3.21648e-06 0.000409412 0.0249343 0.000946563 0.0137454 0.000334054 0.0247929 0.710799 0.00202442 0.000846185 0.0856394 0.000320707 0.0401525 0 0 7.44138e-07 1.25263e-05 0.00029125 0.0119461 0.0220257 2.40283e-06 0.00101976 0.0403801 0.00159224 0.0239835 0.000291436 0.0586725 3000.69 2975.1 3003.08 2991.35 2968.75 3000.96 0 0 0 3205.43 2836.95 2998.64 2986.01 2140 2961.2 2991.06 2966.01 2989.59 3008.01 2987 3.48947e-06 0.703877 
245 2999.24 24627.7 0 259.56 5.94744e+23 0.0159263 7.48073 0.682919 -1.06202 3.75e-05 4.6875e-05 1.62e-06 2.16e-06 5.0625e-12 0.64888 0.00157729 0.000531361 0.106384 0.000249345 0.021104 0 0 3.08214e-07 1.80305e-05 0.00590323 0.117902 0.0160581 4.16089e-06 0.000496225 0.0311802 0.00129928 0.016718 0.000453846 0.0312406 0.645519 0.00284258 0.000990795 0.099183 0.000387013 0.0511125 0 0 1.49295e-06 1.45563e-05 0.000368972 0.0147386 0.0278949 3.09906e-06 0.0012323 0.0503441 0.00217902 0.0290831 0.000394761 0.07371 3002.38 2966.31 3033.03 2990.43 2961.99 2992.65 0 0 2.90614e-13 3060.19 2847.77 2993.55 2995.18 2284.54 3055.92 2985.56 3022.11 2995.49 2953.29 2996.7 3.51229e-06 0.708481 
326 2999.12 24493.3 0 258.153 5.9152e+23 0.0159042 7.82791 -1.06679 0.139618 4.6875e-05 5.625e-05 2.16e-06 2.7e-06 5.0625e-12 0.590212 0.00188323 0.000559204 0.118458 0.000318726 0.0257096 0 0 4.64841e-07 2.66509e-05 0.00720024 0.139082 0.01959 5.57809e-06 0.00057191 0.0370643 0.00174269 0.0191491 0.000534103 0.0378915 0.584784 0.00338024 0.0010385 0.109994 0.000492702 0.0620154 0 0 2.24254e-06 2.14287e-05 0.000448221 0.017316 0.0338927 4.13782e-06 0.00141451 0.059603 0.00291086 0.0331778 0.000462693 0.0890413 2999.58 3006.69 2946.81 2997.91 3034.37 2998.45 0 0 2345.85 3060.54 2881.96 2995.57 2998.46 2510.82 3001.35 3004.5 2994.05 3000.37 3053.92 2995.62 3.53011e-06 0.712074 
163 2998.84 24891.4 0 262.373 6.01191e+23 0.0160223 6.69275 0.00301248 -0.15234 1.875e-05 2.8125e-05 1.08e-06 1.62e-06 5.0625e-12 0.779804 0.000764713 0.000332961 0.0731447 0.000150473 0.0121938 0 0 0 1.11292e-05 0.00352445 0.0718988 0.00943923 1.37209e-06 0.000322137 0.0184947 0.000631772 0.0106447 0.000214809 0.0184264 0.779474 0.00138475 0.000623819 0.06852 0.000234668 0.0296737 0 0 0 9.02768e-06 0.000221343 0.00903079 0.0164755 1.02683e-06 0.000803802 0.0300047 0.00106461 0.0186063 0.000187737 0.0436837 2999.61 2962.25 3002.19 2991.78 3018.13 2990.4 0 0 0 2670.76 2809.29 2992.56 3009.85 2983.33 2929.66 2991.62 3031.6 2980.18 2819.15 2978.02 3.47408e-06 0.700772 
244 2998.29 24754.9 0 260.983 5.98006e+23 0.0159657 8.88233 -0.816865 -0.193801 2.8125e-05 3.75e-05 1.62e-06 2.16e-06 5.0625e-12 0.712273 0.0011495 0.000431905 0.0915736 0.000192963 0.0165618 0 0 1.53267e-07 1.94649e-05 0.00465869 0.0952831 0.0126424 4.1382e-06 0.000393895 0.0250461 0.000940291 0.0137978 0.000325232 0.0247063 0.710713 0.00207785 0.000807766 0.085632 0.000300401 0.0402322 0 0 7.44634e-07 1.57614e-05 0.000292059 0.0119468 0.0220273 3.09142e-06 0.000981118 0.0405614 0.0015817 0.0240752 0.000283741 0.0584679 2998.81 3047.04 3010.65 2992.98 3110.32 2994.47 0 0 0 3179.49 2853.85 2997.16 2989.49 3428.25 2889.44 2987.53 3048.29 2997.33 3022.98 2985.3 3.4915e-06 0.704286 
325 2998.92 24616.7 0 259.471 5.9454e+23 0.0159182 7.50284 -1.00363 -0.0732497 3.75e-05 4.6875e-05 2.16e-06 2.7e-06 5.0625e-12 0.649265 0.00156565 0.000537248 0.106383 0.00026423 0.0210311 0 0 3.0832e-07 1.8345e-05 0.00590217 0.117765 0.0161509 3.854e-06 0.00048915 0.0310691 0.00131283 0.0166485 0.000449222 0.0311446 0.646007 0.00282207 0.00100193 0.0991988 0.000410183 0.0509442 0 0 1.4937e-06 1.48126e-05 0.000368966 0.0147237 0.0280606 2.87095e-06 0.00121493 0.0501729 0.0022021 0.0289669 0.000390803 0.0734955 3001.04 2996.37 3002.17 2992.2 2982.36 3002.71 0 0 3077.68 3261.94 2858.59 2995.61 2994.74 3122.29 3009.6 2992.87 2959.03 2983.35 3015.19 2990.5 3.51222e-06 0.708466 
84 2998.56 24758.4 0 260.996 5.98035e+23 0.0159686 6.51141 0.163794 -0.113114 2.8125e-05 3.75e-05 5.4e-07 1.08e-06 5.0625e-12 0.712394 0.00114163 0.000436635 0.0914149 0.000197858 0.016616 0 0 7.66296e-07 1.36401e-05 0.00460222 0.0953758 0.0127325 3.83148e-06 0.000413646 0.0248629 0.000934268 0.0137265 0.000320618 0.024812 0.710739 0.00206335 0.000816502 0.0854722 0.00030798 0.0403584 0 0 3.72249e-06 1.10434e-05 0.00028848 0.0119568 0.0221813 2.8619e-06 0.00103018 0.0402594 0.00157136 0.0239475 0.000279678 0.0587103 2999.81 2960.25 2953.17 2989.64 2898.04 2989.71 0 0 65.1897 3027.23 2853.8 2991.95 2992.02 3198.09 3031.33 3004.49 2972.68 2987.5 2984.35 3010.22 3.49014e-06 0.704012 
165 3000.31 24629.1 0 259.481 5.94565e+23 0.0159143 6.92977 -0.3416 -0.0051216 3.75e-05 4.6875e-05 1.08e-06 1.62e-06 5.0625e-12 0.648754 0.00152735 0.000527514 0.106501 0.000243254 0.0210182 0 0 4.62461e-07 2.25064e-05 0.0059232 0.118134 0.0161124 3.54553e-06 0.000495604 0.0311834 0.0012673 0.0166315 0.00042531 0.0312289 0.645687 0.00275385 0.000984067 0.0993379 0.000377731 0.0509278 0 0 2.24112e-06 1.8178e-05 0.000370388 0.0147742 0.028002 2.64193e-06 0.00123131 0.0503722 0.00212635 0.0289457 0.000370108 0.0737158 3001.87 2971.9 2967.3 2987.12 2920.05 2996.48 0 0 4727.29 2560.12 2862.8 3001.76 2986.28 2509.06 3105.36 3005.03 3026.56 3006.52 3020.67 2995.97 3.51224e-06 0.708469 
246 2998.42 24509.8 0 258.387 5.92056e+23 0.0159175 8.36979 -0.317921 0.558788 4.6875e-05 5.625e-05 1.62e-06 2.16e-06 5.0625e-12 0.590322 0.00189824 0.000561794 0.1182 0.00032045 0.0256821 1.54807e-07 0 4.6442e-07 2.50787e-05 0.00724449 0.139119 0.0195739 5.72785e-06 0.000546778 0.0371264 0.00174669 0.0192284 0.000535477 0.0378628 0.584933 0.00340742 0.00104338 0.109762 0.000495401 0.0619533 6.22402e-07 0 2.24066e-06 2.01659e-05 0.000451007 0.0173216 0.0338672 4.2492e-06 0.00135245 0.0597069 0.00291773 0.0333174 0.000463915 0.0889798 2999.89 2995.83 3067.32 2989.06 2988.77 3006.92 0 0 1613.15 2925.74 2874.04 2995.85 3005.95 3025.47 3053.71 3005.64 2986.33 3013.96 2954.15 2985.46 3.5274e-06 0.711528 
4 2998.05 24766.7 0 261.129 5.98339e+23 0.0159744 5.63194 -0.353477 0.881568 2.8125e-05 3.75e-05 0 5.4e-07 5.0625e-12 0.712586 0.00113661 0.000435035 0.0913429 0.000200055 0.0165551 0 0 0 1.89945e-05 0.00462883 0.095372 0.0126928 3.67635e-06 0.00041987 0.0247898 0.000944209 0.0137356 0.000312183 0.0248267 0.711032 0.00205456 0.000813626 0.0854171 0.000311444 0.0402161 0 0 0 1.53807e-05 0.00029019 0.0119581 0.0221153 2.74642e-06 0.00104583 0.0401467 0.00158831 0.0239669 0.00027236 0.0587534 2998.89 3030.89 2914.18 2991.54 3024.93 2989.88 0 0 0 2936.93 2849.11 2994.05 3003.74 2603.87 3029.19 2994.66 2991.01 3002.94 2958.41 3005.73 3.49007e-06 0.703998 
85 2996.83 24593.7 0 259.41 5.944e+23 0.0159122 7.53703 0.312324 0.0931734 3.75e-05 4.6875e-05 5.4e-07 1.08e-06 5.0625e-12 0.64863 0.00153456 0.000522725 0.106638 0.00026275 0.0209197 0 0 3.08393e-07 2.09707e-05 0.00593131 0.118012 0.0161884 4.47169e-06 0.000487106 0.0311116 0.0012752 0.0166993 0.000436684 0.0313251 0.645469 0.00276644 0.000974992 0.0994507 0.000407945 0.0506816 0 0 1.49427e-06 1.69351e-05 0.000370841 0.0147568 0.02813 3.33157e-06 0.00121003 0.0502488 0.0021393 0.0290595 0.00037995 0.0739322 2998.69 2957.42 3005.5 2991.71 2963.99 2998.79 0 0 1773.52 2914.99 2884.37 2995.39 2999.86 3257.13 3046.18 2991.37 2969.71 2998.24 3013.43 2974.03 3.51067e-06 0.708154 
166 2998.36 24505.5 0 258.347 5.91966e+23 0.0159118 6.85296 -0.0252269 0.706634 4.6875e-05 5.625e-05 1.08e-06 1.62e-06 5.0625e-12 0.589816 0.00189203 0.000550422 0.118484 0.000323441 0.025811 4.64491e-07 0 9.28983e-07 2.41536e-05 0.00722036 0.139394 0.0195653 7.74152e-06 0.000564667 0.0371897 0.00172497 0.0191129 0.000534165 0.0377844 0.584553 0.00339698 0.00102247 0.110049 0.000500129 0.0622773 1.86788e-06 0 4.48294e-06 1.94261e-05 0.000449599 0.0173596 0.0338594 5.74424e-06 0.00139699 0.0598212 0.00288205 0.0331242 0.000462876 0.0888141 3001.52 2948.41 3010.59 2991.48 3022.13 2986.71 1013.47 0 2015.92 3098.15 2889.78 2992.56 2994.14 2979.44 3016.28 2999.04 2982.72 2993.34 2988.63 3000.56 3.52779e-06 0.711606 
5 2998.53 24627.6 0 259.619 5.9488e+23 0.0159291 5.78467 -0.160201 0.0804546 3.75e-05 4.6875e-05 0 5.4e-07 5.0625e-12 0.64861 0.0015455 0.00051383 0.106615 0.000263001 0.0209769 1.54072e-07 0 3.08144e-07 2.07997e-05 0.00587708 0.117954 0.0161497 5.54659e-06 0.000485327 0.0312321 0.00126755 0.0166951 0.000438027 0.0313496 0.645285 0.00278544 0.000958157 0.0994047 0.00040823 0.0508074 6.21951e-07 0 1.49269e-06 1.67928e-05 0.000367357 0.0147459 0.0280555 4.13136e-06 0.0012053 0.0504307 0.00212592 0.0290448 0.000381022 0.0739713 2999.88 3042.05 3001.88 2991.72 2942.59 3001.96 0 0 4114.63 2831.16 2892.87 2992.55 3004.33 2373.65 3058.51 2999.58 3029.75 2994.2 3060.8 3003.26 3.51045e-06 0.70811 
86 3000.17 24511.7 0 258.256 5.91756e+23 0.0159093 6.65256 1.10512 -0.513363 4.6875e-05 5.625e-05 5.4e-07 1.08e-06 5.0625e-12 0.590061 0.00186219 0.000564402 0.118507 0.000309925 0.0258273 1.54885e-07 0 3.0977e-07 2.49365e-05 0.00724584 0.139126 0.0194948 5.2661e-06 0.000545041 0.037165 0.00171504 0.0192126 0.000534509 0.0377987 0.58468 0.00334274 0.00104824 0.110048 0.000479136 0.0623042 6.22725e-07 0 1.49455e-06 2.00518e-05 0.000451096 0.0173228 0.0337307 3.90669e-06 0.00134817 0.0597697 0.00286491 0.0332904 0.000463082 0.0888301 3001.6 3023.95 3050.1 2990.61 3080.95 2999.35 0 0 735.711 3187.1 2884.6 2999.08 3001.49 2530.71 3019.36 3005.48 3006.43 3013.86 3003.49 2996.57 3.5284e-06 0.711731 