ITEM: TIMESTEP
0
ITEM: NUMBER OF CELLS
27
ITEM: BOX BOUNDS ss ss ss
0 4.64e-06
0 4.64e-06
0 4.64e-06
ITEM: CELLS id c_test[1] c_test[2] 
13 5017.14 10390.3 
1 4983.47 10320.7 
10 5009.1 10373.6 
14 4974.77 10302.7 
19 4987.7 10329.3 
20 4979.85 10313.2 
23 4998.32 10351.3 
4 5011.85 10379.5 
7 5010.66 10376.9 
16 5017.94 10392.1 
17 4981.03 10315.5 
25 5017.9 10392 
22 5035.86 10429 
26 5017.23 10390.6 
2 5003.86 10362.8 
12 4986.16 10326.3 
3 5031.86 10420.7 
6 5001.49 10358 
11 5003.95 10362.9 
21 4990.81 10335.9 
24 4986.21 10326.2 
5 5011.06 10377.9 
8 4966.89 10286.2 
9 4993.52 10341.5 
18 4979.91 10313.2 
15 4989.17 10332.5 
27 4978.07 10309.5 
ITEM: TIMESTEP
100
ITEM: NUMBER OF CELLS
27
ITEM: BOX BOUNDS ss ss ss
0 4.64e-06
0 4.64e-06
0 4.64e-06
ITEM: CELLS id c_test[1] c_test[2] 
13 5021.5 10386.6 
1 4991.38 10355.2 
10 5016.01 10358.5 
14 5031.18 10384 
19 5025.09 10498.6 
20 5002.3 10274.4 
23 4996.68 10408.5 
4 5018.21 10402.2 
7 5009.84 10419.6 
16 5003.4 10363.1 
17 5040.17 10409 
25 4995.81 10351.5 
22 4999.24 10349.3 
26 5009.21 10461 
2 4994.47 10325.4 
12 5010.96 10402.9 
3 5013.45 10362 
6 4996.71 10309 
11 4998.59 10286.6 
21 4999.12 10338 
24 4991.71 10310.4 
5 4990.58 10366.4 
8 5028.19 10434.5 
9 5012.47 10338.3 
18 5000.41 10328.4 
15 4998.6 10394.2 
27 5041.07 10453.4 
